   * xtb version 6.7.1 (edcfbbe) compiled by 'albert@albert-system' on 2024-07-22

   ID    Z sym.   atoms
    1   13 Al     1-96
    2    6 C      97, 99
    3    7 N      98, 100, 101
    4    1 H      102-104

          program call               : xtb input.xyz --gfn 1 --etemp 10000.0 --input .xcontrol
          :  Hamiltonian                  GFN1-xTB          :
 * finished run on 2024/10/27 at 19:31:38.745
   * xtb version 6.7.1 (edcfbbe) compiled by 'albert@albert-system' on 2024-07-22
          program call               : xtb input.xyz --opt crude --gfn 1 --etemp 10000.0 --input .xcontrol --cycles 1000
          :  Hamiltonian                  GFN1-xTB          :
 * total energy  :  -136.3672561 Eh     change       -0.3582784E-08 Eh
 * total energy  :  -136.4793024 Eh     change       -0.1120463E+00 Eh
 * total energy  :  -136.5712851 Eh     change       -0.9198268E-01 Eh
 * total energy  :  -136.6470920 Eh     change       -0.7580697E-01 Eh
 * total energy  :  -136.7120593 Eh     change       -0.6496729E-01 Eh
 * total energy  :  -136.7680143 Eh     change       -0.5595501E-01 Eh
 * total energy  :  -136.8168418 Eh     change       -0.4882741E-01 Eh
 * total energy  :  -136.8606326 Eh     change       -0.4379083E-01 Eh
 * total energy  :  -136.9005247 Eh     change       -0.3989209E-01 Eh
 * total energy  :  -136.9339999 Eh     change       -0.3347525E-01 Eh
 * total energy  :  -137.4450623 Eh     change       -0.1487989E-02 Eh
 * total energy  :  -137.4465934 Eh     change       -0.1531149E-02 Eh
 * total energy  :  -137.4475383 Eh     change       -0.9449064E-03 Eh
 * total energy  :  -137.4485795 Eh     change       -0.1041126E-02 Eh
 * total energy  :  -137.4494886 Eh     change       -0.9091837E-03 Eh
 * total energy  :  -137.4503765 Eh     change       -0.8878086E-03 Eh
 * total energy  :  -137.4511401 Eh     change       -0.7636062E-03 Eh
 * total energy  :  -137.4517542 Eh     change       -0.6141288E-03 Eh
 * total energy  :  -137.4519916 Eh     change       -0.2374032E-03 Eh
   *** GEOMETRY OPTIMIZATION CONVERGED AFTER 68 ITERATIONS ***

 final structure:
================
104
 xtb: 6.7.1 (edcfbbe)
Al           1.82701206885306        1.48929822341711        8.65560680382773
Al           4.50808291279038        0.48902725645793        8.62695311053423
Al           7.34885281252041       -0.29957978391075        8.96841624637332
Al          10.11645626361818       -0.68361248493498        9.46902234599057
Al           2.24409176292710        4.27598186707109        8.66862964801676
Al           5.28066214193184        3.45566932061408        8.61438045799824
Al           8.11043295263619        2.69827983470124        8.99436267228964
Al          11.02754780592527        1.99077427510052        9.21607455042104
Al           2.66378790760860        7.06706029958786        8.71789153741548
Al           6.00514342714288        6.19117929407672        8.60122514059404
Al           8.86125070858640        5.63180783043634        8.68078714481687
Al          11.82775157522065        4.80211456076839        9.06847476312768
Al           4.83825319437265        9.04843777829605        8.68938346972303
Al           7.44196229362449       10.11452685042388        8.94224956825991
Al           9.78924783346754        8.58547858604101        8.89548754947917
Al          12.39627900723708        7.60582343717564        9.22420375327141
Al           1.11622008103573        1.39876507861993       11.42403751252977
Al           4.12024088978820        0.33521605833201       11.55768487583007
Al           7.00444379630633       -0.75927060096127       11.89321019598145
Al          10.11919977713567       -0.93977171344042       12.32110915625749
Al           1.66269293726872        4.33328434345070       11.68747958288086
Al           4.99233069928018        3.27528484948455       12.04107847224876
Al           7.82115941031027        2.50529264325823       12.26220739678151
Al          11.04451781608193        2.00269048349115       12.30648039378933
Al           2.09437024241514        7.41877069188100       11.47493483512012
Al           5.88227242786571        6.15565904482938       11.83830956558164
Al           8.83774444438712        5.95591332936036       11.83935587371967
Al          12.03636703688963        4.88006759544527       12.05584438805680
Al           4.59836742631274        9.13857243849548       11.69096762501366
Al           7.38576471055368       10.64093615485336       11.78015987223658
Al           9.85592338721837        9.00014145352233       12.06176842934912
Al          12.65641098314892        7.98102334416267       12.02662654576416
Al           0.63731596897036        0.02660293911515       13.82228226667050
Al           3.18572612295629       -1.39994234557378       13.83107192389667
Al           5.87198387187639       -2.43104079522501       13.86161942562515
Al           9.95198588277807       -0.93220784464232       15.13115115915069
Al           0.55170703751681        5.19967090048210       14.11602550575389
Al           4.54231165616739        3.01403383905261       15.18212265058647
Al           7.39319596196333        1.61199548774505       15.01530162264337
Al          11.56498717157258        2.23200573409139       15.12928152434125
Al           1.56557829885945        7.94846285831304       14.32399988916765
Al           5.52018277450937        5.84426140432645       14.78939396044864
Al           8.61822377644222        4.96548225733065       14.52140905445031
Al          13.03621258444703        4.93485936274504       14.71658489399418
Al           4.39018683742469        9.41340588536413       14.51908955139133
Al           7.09481323865653       10.77614522863131       14.59387665224837
Al          10.13210455274369        9.46433411417248       14.99285516375177
Al          12.88649193316838        8.04500709008095       14.92352397563420
Al           0.88446619919743        1.17016409159430       16.39329407586289
Al           3.81257000676288        0.12863681402572       16.30355853344063
Al           6.95610660767523       -1.21349384127325       16.16557010663104
Al          11.67067915895342       -0.98952989438669       17.29851596522341
Al           1.66477346441661        4.11450215035581       16.39480550088693
Al           6.55896457468033        2.40371074590151       18.04304431549649
Al           9.26073954558980        3.20498205183380       16.99920519303885
Al          12.86865271618691        1.69245747084304       17.63752189211906
Al           1.93412257444642        7.66253980559246       17.14166971198459
Al           6.10674652543227        6.84754759411186       17.35119541308916
Al           9.15802748267173        6.89406581407911       16.65205177891250
Al          13.85646240401549        4.71098881713121       17.47886772564383
Al           4.30484933198116        9.44464155090286       17.42603643209187
Al           6.98833384026880       11.27621725710780       17.40236926489114
Al           9.85124048670196       10.60367398857388       17.52614832875706
Al          13.72609274628466        7.68694466039818       17.58387907382015
Al           0.90261337368018        1.03278210469738       19.28176797619932
Al           3.77283831453856       -0.10434509153288       19.14080969845821
Al           6.68515808422997       -0.75931973045682       19.09877110200436
Al           9.78115851709418       -0.78139123266159       19.33052814418537
Al           1.25598796201133        4.14214164237427       19.31419735594403
Al           4.31385728560779        3.39887402561120       19.48020093632908
Al           7.88235591357359        4.04842988715685       20.36754530806045
Al          10.79064074806690        2.26766027294733       19.63930616345621
Al           1.27471204925987        7.03853930970771       19.77523406195348
Al           5.52129126949919        6.06534363547882       20.02558332877989
Al           9.64159286565981        6.31705119187891       19.29938234558789
Al          12.36488541912475        4.90379076950262       19.94182288839834
Al           4.82481709818015        9.18021248448449       20.46345859212909
Al           7.15376582752997       10.66021295584319       20.17118036686182
Al           9.87158029709393        9.47905042943411       20.16663859739467
Al          12.70134063054556        8.15185582036505       20.15009526769707
Al           1.24203962850926        1.15447585099464       22.07172770544221
Al           3.97337483648449        0.11127306947404       22.19907221511899
Al           6.78258643497782       -0.43017567226358       22.10381252704051
Al           9.56584971092571       -0.78036197760667       22.08639241188885
Al           1.57769642979791        3.89845394719680       22.41863999082224
Al           4.59674044362713        3.01955765346990       22.54721476258381
Al           7.63043021285924        2.59557645663956       23.39723250301934
Al          10.49551674141790        1.89155934555907       22.61130307395488
Al           1.82916825888347        6.75600245943349       22.48392995428078
Al           4.97107548492875        5.85198957902698       23.33422832082367
Al           8.90873968514922        5.74900615629026       22.49416277191236
Al          11.72759828248267        4.59339002296439       22.80522844232068
Al           4.16439118166003        8.55411410060144       23.10537726181289
Al           7.06546520776485        8.04053469335787       24.50856738305156
Al           9.63356142311613        8.53006757388921       23.08478618856759
Al          12.24831057328103        7.45684678281510       22.83325305918634
C            5.91123287228109        4.20951368201608       25.18405512077902
N            7.21271877633763        4.13156890826922       24.76985574174152
C            7.85899024282550        5.41639106139412       24.43723142865090
N            7.09825946503056        6.24189386640446       23.46212605082718
N            5.18866731820018        5.35608863108055       25.38469007289344
H            5.34159647064780        3.24514625665865       25.14809756417068
H            8.06346842438568        6.01427334026643       25.39037343315076
H            5.87724277895358        6.08995304433508       25.64559906759446

          :  Hamiltonian                  GFN1-xTB          :
         :: total energy            -137.451991583883 Eh    ::
         :: gradient norm              0.004963506050 Eh/a0 ::
         :: HOMO-LUMO gap              0.028004333866 eV    ::
         :: SCC energy              -137.261629213263 Eh    ::
         :: repulsion energy           0.146939996744 Eh    ::

    * Orbital Energies and Occupations

         #    Occupation            Energy/Eh            Energy/eV
      -------------------------------------------------------------
         1        2.0000           -0.6971192             -18.9696
       ...           ...                  ...                  ...
       145        1.1431           -0.2546127              -6.9284
       146        1.1105           -0.2525144              -6.8713
       147        1.0943           -0.2514748              -6.8430
       148        1.0784           -0.2504631              -6.8154
       149        1.0546           -0.2489476              -6.7742
       150        1.0330           -0.2475791              -6.7370
       151        1.0227           -0.2469253              -6.7192
       152        0.9950           -0.2451685              -6.6714
       153        0.9894           -0.2448119              -6.6617
       154        0.9770           -0.2440293              -6.6404
       155        0.9437           -0.2419137              -6.5828
       156        0.9359           -0.2414214              -6.5694
       157        0.9074           -0.2396026              -6.5199 (HOMO)
       158        0.8913           -0.2385735              -6.4919 (LUMO)
       159        0.8685           -0.2371057              -6.4520
       160        0.8407           -0.2353092              -6.4031
       161        0.8260           -0.2343506              -6.3770
       162        0.7998           -0.2326309              -6.3302
       163        0.7737           -0.2309022              -6.2832
       164        0.7529           -0.2295054              -6.2452
       165        0.7310           -0.2280198              -6.2047
       166        0.7206           -0.2273045              -6.1853
       167        0.7059           -0.2262940              -6.1578
       168        0.6829           -0.2246878              -6.1141
       ...           ...                  ...                  ...
       890                         13.4206085             365.1933
      -------------------------------------------------------------
                  HL-Gap            0.0010291 Eh            0.0280 eV

Wiberg/Mayer (AO) data.
largest (>0.10) Wiberg bond orders for each atom

     #   Z sym  total        # sym  WBO       # sym  WBO       # sym  WBO
 ---------------------------------------------------------------------------
     1  13 Al   1.418 --     5 Al   0.469     2 Al   0.445    17 Al   0.440
     2  13 Al   1.520 --     1 Al   0.445     3 Al   0.402    18 Al   0.359
                             6 Al   0.311
     3  13 Al   1.511 --     4 Al   0.457     2 Al   0.402    19 Al   0.351
                             7 Al   0.292
     4  13 Al   1.421 --     8 Al   0.459     3 Al   0.457    20 Al   0.445
     5  13 Al   1.535 --     9 Al   0.479     1 Al   0.469    21 Al   0.300
                             6 Al   0.268
     6  13 Al   1.610 --    10 Al   0.456     7 Al   0.381     2 Al   0.311
                             5 Al   0.268    22 Al   0.165
     7  13 Al   1.600 --     6 Al   0.381     8 Al   0.333    11 Al   0.333
                             3 Al   0.292    23 Al   0.230
     8  13 Al   1.519 --     4 Al   0.459    12 Al   0.424     7 Al   0.333
                            24 Al   0.294
     9  13 Al   1.477 --     5 Al   0.479    25 Al   0.449    13 Al   0.395
                            10 Al   0.141
    10  13 Al   1.574 --     6 Al   0.456    11 Al   0.412    13 Al   0.296
                            26 Al   0.238     9 Al   0.141
    11  13 Al   1.594 --    10 Al   0.412     7 Al   0.333    15 Al   0.293
                            12 Al   0.292    27 Al   0.259
    12  13 Al   1.511 --    16 Al   0.441     8 Al   0.424    28 Al   0.342
                            11 Al   0.292
    13  13 Al   1.503 --    14 Al   0.473     9 Al   0.395    29 Al   0.331
                            10 Al   0.296
    14  13 Al   1.455 --    15 Al   0.494    13 Al   0.473    30 Al   0.420
    15  13 Al   1.547 --    14 Al   0.494    16 Al   0.480    11 Al   0.293
                            31 Al   0.236
    16  13 Al   1.429 --    15 Al   0.480    32 Al   0.458    12 Al   0.441
    17  13 Al   1.564 --    33 Al   0.493     1 Al   0.440    21 Al   0.354
                            18 Al   0.237
    18  13 Al   1.618 --     2 Al   0.359    34 Al   0.347    22 Al   0.310
                            19 Al   0.291    17 Al   0.237
    19  13 Al   1.631 --    35 Al   0.475     3 Al   0.351    18 Al   0.291
                            20 Al   0.270    23 Al   0.180
    20  13 Al   1.537 --    36 Al   0.492     4 Al   0.445    24 Al   0.298
                            19 Al   0.270
    21  13 Al   1.614 --    37 Al   0.477    17 Al   0.354     5 Al   0.300
                            25 Al   0.279    22 Al   0.161
    22  13 Al   1.666 --    23 Al   0.385    26 Al   0.342    18 Al   0.310
                            38 Al   0.271     6 Al   0.165    21 Al   0.161
    23  13 Al   1.666 --    39 Al   0.402    22 Al   0.385    24 Al   0.236
                             7 Al   0.230    19 Al   0.180    43 Al   0.155
                            27 Al   0.104
    24  13 Al   1.602 --    40 Al   0.441    28 Al   0.325    20 Al   0.298
                             8 Al   0.294    23 Al   0.236
    25  13 Al   1.533 --     9 Al   0.449    41 Al   0.398    29 Al   0.315
                            21 Al   0.279
    26  13 Al   1.653 --    27 Al   0.371    42 Al   0.368    22 Al   0.342
                            29 Al   0.239    10 Al   0.238
    27  13 Al   1.665 --    43 Al   0.437    26 Al   0.371    11 Al   0.259
                            31 Al   0.252    28 Al   0.190    23 Al   0.104
    28  13 Al   1.616 --    44 Al   0.462    12 Al   0.342    24 Al   0.325
                            32 Al   0.253    27 Al   0.190
    29  13 Al   1.612 --    45 Al   0.447    13 Al   0.331    25 Al   0.315
                            30 Al   0.261    26 Al   0.239
    30  13 Al   1.535 --    46 Al   0.473    14 Al   0.420    31 Al   0.360
                            29 Al   0.261
    31  13 Al   1.604 --    47 Al   0.371    30 Al   0.360    32 Al   0.349
                            27 Al   0.252    15 Al   0.236
    32  13 Al   1.518 --    16 Al   0.458    48 Al   0.429    31 Al   0.349
                            28 Al   0.253
    33  13 Al   1.442 --    17 Al   0.493    49 Al   0.479    34 Al   0.402
    34  13 Al   1.549 --    35 Al   0.436    33 Al   0.402    50 Al   0.360
                            18 Al   0.347
    35  13 Al   1.441 --    19 Al   0.475    51 Al   0.468    34 Al   0.436
    36  13 Al   1.550 --    52 Al   0.507    20 Al   0.492    51 Al   0.267
                            40 Al   0.126    39 Al   0.118
    37  13 Al   1.497 --    53 Al   0.513    21 Al   0.477    41 Al   0.378
    38  13 Al   1.568 --    42 Al   0.356    50 Al   0.282    22 Al   0.271
                            39 Al   0.257    53 Al   0.237    54 Al   0.127
    39  13 Al   1.668 --    23 Al   0.402    51 Al   0.301    38 Al   0.257
                            55 Al   0.242    54 Al   0.209    36 Al   0.118
    40  13 Al   1.635 --    24 Al   0.441    56 Al   0.412    44 Al   0.293
                            55 Al   0.290    36 Al   0.126
    41  13 Al   1.514 --    57 Al   0.454    25 Al   0.398    37 Al   0.378
                            45 Al   0.263
    42  13 Al   1.633 --    58 Al   0.487    26 Al   0.368    38 Al   0.356
                            43 Al   0.226    45 Al   0.102
    43  13 Al   1.649 --    27 Al   0.437    59 Al   0.400    55 Al   0.296
                            42 Al   0.226    23 Al   0.155
    44  13 Al   1.538 --    28 Al   0.462    60 Al   0.428    40 Al   0.293
                            48 Al   0.279
    45  13 Al   1.578 --    29 Al   0.447    61 Al   0.406    46 Al   0.330
                            41 Al   0.263    42 Al   0.102
    46  13 Al   1.519 --    30 Al   0.473    62 Al   0.456    45 Al   0.330
                            47 Al   0.198
    47  13 Al   1.627 --    63 Al   0.491    31 Al   0.371    48 Al   0.299
                            59 Al   0.253    46 Al   0.198
    48  13 Al   1.544 --    64 Al   0.489    32 Al   0.429    47 Al   0.299
                            44 Al   0.279
    49  13 Al   1.548 --    33 Al   0.479    65 Al   0.440    53 Al   0.319
                            50 Al   0.270
    50  13 Al   1.613 --    66 Al   0.453    34 Al   0.360    38 Al   0.282
                            49 Al   0.270    51 Al   0.163
    51  13 Al   1.592 --    35 Al   0.468    67 Al   0.381    39 Al   0.301
                            36 Al   0.267    50 Al   0.163
    52  13 Al   1.464 --    36 Al   0.507    68 Al   0.493    56 Al   0.387
    53  13 Al   1.641 --    37 Al   0.513    69 Al   0.386    49 Al   0.319
                            38 Al   0.237    57 Al   0.120
    54  13 Al   1.682 --    70 Al   0.459    55 Al   0.341    71 Al   0.277
                            39 Al   0.209    67 Al   0.199    38 Al   0.127
    55  13 Al   1.632 --    54 Al   0.341    43 Al   0.296    40 Al   0.290
                            72 Al   0.269    39 Al   0.242
    56  13 Al   1.503 --    40 Al   0.412    52 Al   0.387    72 Al   0.377
                            60 Al   0.286
    57  13 Al   1.538 --    73 Al   0.512    41 Al   0.454    61 Al   0.359
                            53 Al   0.120
    58  13 Al   1.641 --    42 Al   0.487    74 Al   0.454    59 Al   0.284
                            61 Al   0.261
    59  13 Al   1.679 --    75 Al   0.515    43 Al   0.400    58 Al   0.284
                            47 Al   0.253
    60  13 Al   1.513 --    44 Al   0.428    76 Al   0.428    64 Al   0.359
                            56 Al   0.286
    61  13 Al   1.580 --    45 Al   0.406    57 Al   0.359    77 Al   0.315
                            58 Al   0.261    62 Al   0.240
    62  13 Al   1.528 --    46 Al   0.456    78 Al   0.447    63 Al   0.368
                            61 Al   0.240
    63  13 Al   1.457 --    47 Al   0.491    79 Al   0.437    62 Al   0.368
    64  13 Al   1.459 --    80 Al   0.502    48 Al   0.489    60 Al   0.359
    65  13 Al   1.517 --    81 Al   0.477    49 Al   0.440    66 Al   0.298
                            69 Al   0.277
    66  13 Al   1.592 --    50 Al   0.453    67 Al   0.361    82 Al   0.311
                            65 Al   0.298    70 Al   0.131
    67  13 Al   1.573 --    51 Al   0.381    66 Al   0.361    83 Al   0.335
                            68 Al   0.301    54 Al   0.199
    68  13 Al   1.588 --    84 Al   0.495    52 Al   0.493    67 Al   0.301
                            72 Al   0.229
    69  13 Al   1.624 --    73 Al   0.387    53 Al   0.386    70 Al   0.279
                            65 Al   0.277    85 Al   0.267
    70  13 Al   1.667 --    54 Al   0.459    74 Al   0.364    86 Al   0.286
                            69 Al   0.279    66 Al   0.131
    71  13 Al   1.663 --    91 Al   0.353    75 Al   0.310    74 Al   0.278
                            54 Al   0.277    87 Al   0.176    72 Al   0.156
    72  13 Al   1.671 --    56 Al   0.377    88 Al   0.346    76 Al   0.300
                            55 Al   0.269    68 Al   0.229    71 Al   0.156
    73  13 Al   1.513 --    57 Al   0.512    89 Al   0.503    69 Al   0.387
    74  13 Al   1.591 --    58 Al   0.454    70 Al   0.364    71 Al   0.278
                            77 Al   0.256    90 Al   0.155
    75  13 Al   1.671 --    59 Al   0.515    71 Al   0.310    76 Al   0.284
                            79 Al   0.217    91 Al   0.150
    76  13 Al   1.629 --    60 Al   0.428    92 Al   0.378    72 Al   0.300
                            75 Al   0.284    80 Al   0.194
    77  13 Al   1.621 --    78 Al   0.500    93 Al   0.489    61 Al   0.315
                            74 Al   0.256
    78  13 Al   1.460 --    77 Al   0.500    62 Al   0.447    79 Al   0.380
    79  13 Al   1.632 --    63 Al   0.437    78 Al   0.380    95 Al   0.317
                            80 Al   0.286    75 Al   0.217
    80  13 Al   1.550 --    64 Al   0.502    96 Al   0.482    79 Al   0.286
                            76 Al   0.194
    81  13 Al   1.435 --    85 Al   0.497    65 Al   0.477    82 Al   0.405
    82  13 Al   1.521 --    83 Al   0.460    81 Al   0.405    86 Al   0.338
                            66 Al   0.311
    83  13 Al   1.505 --    84 Al   0.481    82 Al   0.460    67 Al   0.335
                            87 Al   0.178
    84  13 Al   1.451 --    68 Al   0.495    83 Al   0.481    88 Al   0.437
    85  13 Al   1.503 --    81 Al   0.497    89 Al   0.454    69 Al   0.267
                            86 Al   0.258
    86  13 Al   1.607 --    82 Al   0.338    90 Al   0.306    70 Al   0.286
                            85 Al   0.258    87 Al   0.242
    87  13 Al   1.640 --    98 N    0.621    88 Al   0.326    86 Al   0.242
                            83 Al   0.178    71 Al   0.176
    88  13 Al   1.536 --    84 Al   0.437    92 Al   0.405    72 Al   0.346
                            87 Al   0.326
    89  13 Al   1.465 --    73 Al   0.503    85 Al   0.454    93 Al   0.357
                            90 Al   0.115
    90  13 Al   1.925 --   101 N    0.526   100 N    0.502    93 Al   0.367
                            86 Al   0.306    74 Al   0.155    89 Al   0.115
    91  13 Al   1.898 --   100 N    0.497    99 C    0.436    71 Al   0.353
                            95 Al   0.297    92 Al   0.273    75 Al   0.150
    92  13 Al   1.506 --    96 Al   0.423    88 Al   0.405    76 Al   0.378
                            91 Al   0.273
    93  13 Al   1.505 --    77 Al   0.489    90 Al   0.367    89 Al   0.357
                            94 Al   0.237
    94  13 Al   1.486 --   100 N    0.557    95 Al   0.385    93 Al   0.237
    95  13 Al   1.532 --    96 Al   0.458    94 Al   0.385    79 Al   0.317
                            91 Al   0.297
    96  13 Al   1.427 --    80 Al   0.482    95 Al   0.458    92 Al   0.423
    97   6 C    3.531 --    98 N    1.229   101 N    1.206   102 H    0.859
    98   7 N    2.937 --    97 C    1.229    99 C    0.943    87 Al   0.621
    99   6 C    3.386 --   100 N    0.958    98 N    0.943   103 H    0.824
                            91 Al   0.436
   100   7 N    2.643 --    99 C    0.958    94 Al   0.557    90 Al   0.502
                            91 Al   0.497
   101   7 N    2.790 --    97 C    1.206   104 H    0.875    90 Al   0.526
   102   1 H    0.996 --    97 C    0.859
   103   1 H    0.959 --    99 C    0.824
   104   1 H    0.959 --   101 N    0.875
 ---------------------------------------------------------------------------

           -------------------------------------------------
          | TOTAL ENERGY             -137.451991583883 Eh   |
          | GRADIENT NORM               0.004963506050 Eh/α |
          | HOMO-LUMO GAP               0.028004333866 eV   |
           -------------------------------------------------

normal termination of xtb
